 Gaussian 16, Revision C.02,
 Gaussian 16:  ES64L-G16RevC.02  7-Dec-2021

 ----------------------------
 # opt freq m062x 6-31G(d) 5d
 ----------------------------

 ----------
 [No Title]
 ----------
 Symbolic Z-matrix:
 Charge =  0 Multiplicity = 1

 SCF Done:  E(RM062X) =  -1540.54097681     A.U. after   15 cycles
 SCF Done:  E(RM062X) =  -1540.57815819     A.U. after   14 cycles
 SCF Done:  E(RM062X) =  -1540.58535192     A.U. after   14 cycles
 SCF Done:  E(RM062X) =  -1540.59256029     A.U. after   14 cycles
 SCF Done:  E(RM062X) =  -1540.58164388     A.U. after   14 cycles
 SCF Done:  E(RM062X) =  -1540.59438802     A.U. after   14 cycles
 SCF Done:  E(RM062X) =  -1540.59608376     A.U. after   14 cycles
 SCF Done:  E(RM062X) =  -1540.59679589     A.U. after   14 cycles
 SCF Done:  E(RM062X) =  -1540.59896460     A.U. after   13 cycles
 SCF Done:  E(RM062X) =  -1540.59838610     A.U. after   14 cycles
 SCF Done:  E(RM062X) =  -1540.60306861     A.U. after   12 cycles
 SCF Done:  E(RM062X) =  -1540.60307649     A.U. after   11 cycles
 SCF Done:  E(RM062X) =  -1540.60308188     A.U. after   12 cycles
 SCF Done:  E(RM062X) =  -1540.60308192     A.U. after   10 cycles
 SCF Done:  E(RM062X) =  -1540.60308260     A.U. after    9 cycles
 SCF Done:  E(RM062X) =  -1540.60308396     A.U. after   10 cycles
 SCF Done:  E(RM062X) =  -1540.60308421     A.U. after    8 cycles
 SCF Done:  E(RM062X) =  -1540.60308460     A.U. after    8 cycles
 SCF Done:  E(RM062X) =  -1540.60308461     A.U. after    6 cycles
 Optimization completed.
    -- Stationary point found.
 Normal termination of Gaussian 16 at Mon Jun 24 11:56:46 2024.

 --------------------------------------------------------------------
 #N Geom=AllCheck Guess=TCheck SCRF=Check GenChk RM062X/6-31G(d) Freq
 --------------------------------------------------------------------

 Structure from the checkpoint file:  "/lustre/home/2201110454/g16tmp/Gau-2812728.chk"
 ----------
 [No Title]
 ----------
 Charge =  0 Multiplicity = 1

                         Standard orientation:
 ---------------------------------------------------------------------
 Center     Atomic      Atomic             Coordinates (Angstroms)
 Number     Number       Type             X           Y           Z
 ---------------------------------------------------------------------
      1          6           0       -1.149057    1.338830   -0.168801
      2          6           0       -1.311917    2.608509   -0.737836
      3          6           0       -0.211895    3.279417   -1.255856
      4          6           0        1.049936    2.702491   -1.242541
      5          6           0        1.224625    1.444593   -0.670231
      6          6           0        0.139326    0.761137   -0.103053
      7         16           0        0.376845   -0.754376    0.808341
      8          7           0        2.532542    0.899054   -0.641091
      9          6           0        2.868049   -0.307686   -1.173897
     10          6           0        4.310917   -0.736589   -0.851116
     11          8           0        2.107773   -1.016503   -1.812129
     12          7           0        4.414374   -1.038671    0.572269
     13          6           0        4.717758   -1.939622   -1.683231
     14          6           0        4.584385   -0.061771    1.503603
     15          6           0        4.531523   -0.514408    2.944762
     16          8           0        4.750290    1.112173    1.192310
     17          7           0       -2.230589    0.605580    0.343130
     18          6           0       -3.537134    0.995640    0.442556
     19          6           0       -4.461307   -0.131306    0.946021
     20          8           0       -3.979261    2.093136    0.153714
     21          7           0       -4.644066   -1.124214   -0.106183
     22          6           0       -5.802892    0.431701    1.382105
     23          6           0       -3.766745   -2.146913   -0.288842
     24          6           0       -4.077268   -3.097006   -1.424382
     25          8           0       -2.780736   -2.288662    0.422826
     26          1           0       -2.296084    3.051423   -0.765275
     27          1           0       -0.350943    4.262607   -1.693710
     28          1           0        1.906920    3.205483   -1.677760
     29          1           0        0.633412   -1.537509   -0.255917
     30          1           0        3.259198    1.401726   -0.133626
     31          1           0        4.982215    0.109557   -1.028961
     32          1           0        4.119237   -1.956985    0.876639
     33          1           0        4.034127   -2.774260   -1.505042
     34          1           0        5.738461   -2.240810   -1.436545
     35          1           0        4.659991   -1.698203   -2.746307
     36          1           0        3.501238   -0.414523    3.300897
     37          1           0        4.847039   -1.552607    3.071279
     38          1           0        5.166345    0.141836    3.540139
     39          1           0       -2.028295   -0.359662    0.610418
     40          1           0       -3.967668   -0.653653    1.771838
     41          1           0       -5.391142   -0.977657   -0.770552
     42          1           0       -6.454657   -0.374452    1.727139
     43          1           0       -5.664361    1.151626    2.191013
     44          1           0       -6.279240    0.964104    0.554463
     45          1           0       -5.062422   -2.936414   -1.867469
     46          1           0       -3.312431   -2.978400   -2.196233
     47          1           0       -4.010628   -4.118724   -1.046094
 ---------------------------------------------------------------------

 SCF Done:  E(RM062X) =  -1540.60308461     A.U. after    1 cycles

 The electronic state is 1-A.
 Alpha  occ. eigenvalues --  -89.89351 -19.61452 -19.61388 -19.61274 -19.61024
 Alpha  occ. eigenvalues --  -14.79433 -14.79265 -14.78504 -14.77966 -10.65994
 Alpha  occ. eigenvalues --  -10.65974 -10.65216 -10.64919 -10.59771 -10.59499
 Alpha  occ. eigenvalues --  -10.59455 -10.59128 -10.57780 -10.55175 -10.54875
 Alpha  occ. eigenvalues --  -10.54585 -10.54144 -10.53975 -10.53910 -10.53595
 Alpha  occ. eigenvalues --   -8.25688  -6.17545  -6.17311  -6.16887  -1.16948
 Alpha  occ. eigenvalues --   -1.16908  -1.16097  -1.15877  -1.05068  -1.04538
 Alpha  occ. eigenvalues --   -1.04109  -1.03441  -0.94626  -0.88702  -0.88427
 Alpha  occ. eigenvalues --   -0.87307  -0.83806  -0.82907  -0.82725  -0.79273
 Alpha  occ. eigenvalues --   -0.75194  -0.74660  -0.70394  -0.69025  -0.67919
 Alpha  occ. eigenvalues --   -0.67743  -0.66033  -0.64324  -0.61734  -0.60936
 Alpha  occ. eigenvalues --   -0.59460  -0.56865  -0.56681  -0.56528  -0.56005
 Alpha  occ. eigenvalues --   -0.55116  -0.53767  -0.52764  -0.52217  -0.52062
 Alpha  occ. eigenvalues --   -0.50741  -0.49974  -0.49880  -0.49210  -0.48570
 Alpha  occ. eigenvalues --   -0.48124  -0.48060  -0.47967  -0.46927  -0.45890
 Alpha  occ. eigenvalues --   -0.45285  -0.44656  -0.44594  -0.44284  -0.43799
 Alpha  occ. eigenvalues --   -0.43628  -0.43356  -0.42861  -0.42651  -0.41587
 Alpha  occ. eigenvalues --   -0.39359  -0.37149  -0.35448  -0.35188  -0.33551
 Alpha  occ. eigenvalues --   -0.33427  -0.33053  -0.31052  -0.30663  -0.30362
 Alpha  occ. eigenvalues --   -0.28299  -0.26303
 Alpha virt. eigenvalues --    0.01935   0.02384   0.05170   0.06296   0.07355
 Alpha virt. eigenvalues --    0.09273   0.09452   0.11194   0.11458   0.13732
 Alpha virt. eigenvalues --    0.15062   0.15145   0.16650   0.16748   0.17140

 Mulliken charges:
               1
     1  C    0.303334
     2  C   -0.171894
     3  C   -0.188128
     4  C   -0.159480
     5  C    0.273944
     6  C   -0.221250
     7  S   -0.087263
     8  N   -0.722606
     9  C    0.585992
    10  C   -0.115313
    11  O   -0.491070
    12  N   -0.605228
    13  C   -0.484789
    14  C    0.580893
    15  C   -0.583469
    16  O   -0.515995
    17  N   -0.758045
    18  C    0.606963
    19  C   -0.117297
    20  O   -0.482525
    21  N   -0.616789
    22  C   -0.488612
    23  C    0.575245
    24  C   -0.576777
    25  O   -0.502689
    26  H    0.223840
    27  H    0.170445
    28  H    0.167573
    29  H    0.167879
    30  H    0.406236
    31  H    0.207046
    32  H    0.355517
    33  H    0.175542
    34  H    0.171161
    35  H    0.189700
    36  H    0.216768
    37  H    0.172905
    38  H    0.209895
    39  H    0.433178
    40  H    0.210370
    41  H    0.355239
    42  H    0.169873
    43  H    0.190164
    44  H    0.179914
    45  H    0.165944
    46  H    0.213404
    47  H    0.210255
 Sum of Mulliken charges =  -0.00000

 Dipole moment (field-independent basis, Debye):
    X=             -0.8497    Y=             -3.3051    Z=             -0.0720  Tot=              3.4134
 Quadrupole moment (field-independent basis, Debye-Ang):
   XX=           -126.4582   YY=           -151.8397   ZZ=           -149.6139
   XY=              1.3296   XZ=              6.6270   YZ=             -3.3448

  Exact polarizability:     260.740     -13.309     222.933      -8.498      -9.926     167.169
 Approx polarizability:     285.961     -14.294     292.105      -3.537     -20.068     208.150

                      1                      2                      3
                      A                      A                      A
 Frequencies --     14.0850                17.7073                28.2250
 Red. masses --      5.1323                 4.7474                 4.7383
 Frc consts  --      0.0006                 0.0009                 0.0022
 IR Inten    --      0.5511                 0.7298                 0.2829

                      4                      5                      6
                      A                      A                      A
 Frequencies --     39.4174                47.8791                60.9931
 Red. masses --      5.2306                 5.6727                 1.5962
 Frc consts  --      0.0048                 0.0077                 0.0035
 IR Inten    --      1.8909                 5.9994                 3.1092

                      7                      8                      9
                      A                      A                      A
 Frequencies --     70.0900                79.3827                89.4299
 Red. masses --      3.9884                 2.4042                 2.7843
 Frc consts  --      0.0115                 0.0089                 0.0131
 IR Inten    --      1.2785                 6.6588                 4.5164

                     10                     11                     12
                      A                      A                      A
 Frequencies --     94.5069               100.9669               109.0330
 Red. masses --      1.2105                 5.9893                 6.0979
 Frc consts  --      0.0064                 0.0360                 0.0427
 IR Inten    --      0.7009                 3.8804                26.4083

                     13                     14                     15
                      A                      A                      A
 Frequencies --    130.4984               146.8416               165.6026
 Red. masses --      5.6660                 5.0246                 6.3262
 Frc consts  --      0.0569                 0.0638                 0.1022
 IR Inten    --      3.8042                 4.3521                 3.7143

                     16                     17                     18
                      A                      A                      A
 Frequencies --    187.9935               196.9074               213.7868
 Red. masses --      3.6518                 3.2150                 3.5539
 Frc consts  --      0.0760                 0.0734                 0.0957
 IR Inten    --      2.1433                 6.8800                 5.5518

                     19                     20                     21
                      A                      A                      A
 Frequencies --    227.0260               231.8350               232.7234
 Red. masses --      3.8847                 1.2340                 1.2289
 Frc consts  --      0.1180                 0.0391                 0.0392
 IR Inten    --      3.4729                 1.8576                 0.7569

                     22                     23                     24
                      A                      A                      A
 Frequencies --    250.4263               259.8617               282.6601
 Red. masses --      4.7197                 4.0693                 3.9048
 Frc consts  --      0.1744                 0.1619                 0.1838
 IR Inten    --     12.4349                 3.1136                 6.1368

                     25                     26                     27
                      A                      A                      A
 Frequencies --    294.2302               312.4114               319.0537
 Red. masses --      4.5902                 3.1949                 1.7336
 Frc consts  --      0.2341                 0.1837                 0.1040
 IR Inten    --      1.4645                 6.4491                34.6632

                     28                     29                     30
                      A                      A                      A
 Frequencies --    328.7067               348.3169               357.1511
 Red. masses --      4.4600                 3.3389                 4.9456
 Frc consts  --      0.2839                 0.2387                 0.3717
 IR Inten    --      1.9150                18.5599                33.0795

                     31                     32                     33
                      A                      A                      A
 Frequencies --    401.4337               422.0636               436.1752
 Red. masses --      4.3561                 2.7459                 3.0067
 Frc consts  --      0.4136                 0.2882                 0.3370
 IR Inten    --      3.2723                13.1477                 1.1847

                     34                     35                     36
                      A                      A                      A
 Frequencies --    437.8198               454.3488               471.0880
 Red. masses --      1.8861                 2.3337                 2.3029
 Frc consts  --      0.2130                 0.2838                 0.3011
 IR Inten    --     68.4406                29.7336                86.4173

                     37                     38                     39
                      A                      A                      A
 Frequencies --    491.3854               501.7101               524.6877
 Red. masses --      1.9729                 4.5102                 4.3827
 Frc consts  --      0.2807                 0.6689                 0.7109
 IR Inten    --     92.4667                 8.8744                 1.4953

                     40                     41                     42
                      A                      A                      A
 Frequencies --    591.3388               598.4321               599.6868
 Red. masses --      3.6961                 4.9232                 3.7844
 Frc consts  --      0.7615                 1.0388                 0.8019
 IR Inten    --     14.4011                 5.2701                 4.5190

                     43                     44                     45
                      A                      A                      A
 Frequencies --    621.6270               639.1502               640.5555
 Red. masses --      4.1160                 2.6387                 2.4485
 Frc consts  --      0.9371                 0.6351                 0.5919
 IR Inten    --      4.9056                 5.3325                21.6404

                     46                     47                     48
                      A                      A                      A
 Frequencies --    647.7208               667.5204               705.2204
 Red. masses --      1.4579                 4.4927                 3.1252
 Frc consts  --      0.3604                 1.1795                 0.9158
 IR Inten    --     70.7933                 1.8579                 3.0324

                     49                     50                     51
                      A                      A                      A
 Frequencies --    714.9153               738.8381               778.9023
 Red. masses --      3.8227                 2.6402                 1.8164
 Frc consts  --      1.1512                 0.8492                 0.6493
 IR Inten    --     10.5964                15.4585                59.4427

                     52                     53                     54
                      A                      A                      A
 Frequencies --    793.4696               805.4518               817.7690
 Red. masses --      3.2522                 1.8331                 3.3242
 Frc consts  --      1.2064                 0.7007                 1.3098
 IR Inten    --     24.2331                48.0924                 9.7724

                     55                     56                     57
                      A                      A                      A
 Frequencies --    835.5583               918.3644               921.4162
 Red. masses --      2.2713                 1.8405                 2.0080
 Frc consts  --      0.9343                 0.9145                 1.0045
 IR Inten    --     10.5739                 1.2326                 7.8520

                     58                     59                     60
                      A                      A                      A
 Frequencies --    931.0070               941.1195               946.9555
 Red. masses --      1.5035                 1.8730                 1.7748
 Frc consts  --      0.7678                 0.9774                 0.9377
 IR Inten    --      1.4476                 3.5328                10.7165

                     61                     62                     63
                      A                      A                      A
 Frequencies --    960.4951               997.9955              1001.3815
 Red. masses --      3.3632                 3.6839                 3.2168
 Frc consts  --      1.8281                 2.1618                 1.9006
 IR Inten    --      9.8251                 5.5063                 1.2751

                     64                     65                     66
                      A                      A                      A
 Frequencies --   1013.1931              1027.7653              1034.5059
 Red. masses --      1.2941                 1.7120                 1.6274
 Frc consts  --      0.7827                 1.0655                 1.0261
 IR Inten    --      1.2442                 7.6364                 1.9054

                     67                     68                     69
                      A                      A                      A
 Frequencies --   1047.7889              1072.4722              1072.5564
 Red. masses --      2.4611                 1.7434                 1.7430
 Frc consts  --      1.5920                 1.1815                 1.1814
 IR Inten    --      2.3113                16.4572                 4.9936

                     70                     71                     72
                      A                      A                      A
 Frequencies --   1079.7344              1082.8960              1085.1826
 Red. masses --      2.0954                 1.8886                 3.5811
 Frc consts  --      1.4393                 1.3048                 2.4847
 IR Inten    --     13.8438                 2.2677                 3.5613

                     73                     74                     75
                      A                      A                      A
 Frequencies --   1151.4635              1162.3215              1167.2113
 Red. masses --      1.7461                 2.2764                 2.3133
 Frc consts  --      1.3640                 1.8120                 1.8569
 IR Inten    --      2.1677                 0.7505                 6.3167

                     76                     77                     78
                      A                      A                      A
 Frequencies --   1200.9233              1201.1986              1211.9718
 Red. masses --      2.6925                 2.2981                 1.4256
 Frc consts  --      2.2879                 1.9537                 1.2338
 IR Inten    --     29.8770                21.4221                 6.9602

                     79                     80                     81
                      A                      A                      A
 Frequencies --   1252.2851              1258.0931              1291.7615
 Red. masses --      2.1267                 1.9153                 1.6261
 Frc consts  --      1.9650                 1.7861                 1.5987
 IR Inten    --     22.7227                72.6707                30.0781

                     82                     83                     84
                      A                      A                      A
 Frequencies --   1295.0061              1301.1785              1312.7549
 Red. masses --      1.5107                 2.2587                 2.8736
 Frc consts  --      1.4927                 2.2531                 2.9177
 IR Inten    --     35.8093                86.9162                20.8825

                     85                     86                     87
                      A                      A                      A
 Frequencies --   1360.8723              1367.4818              1368.0704
 Red. masses --      3.1869                 1.4273                 1.4527
 Frc consts  --      3.4774                 1.5726                 1.6019
 IR Inten    --     28.2881                21.2054                28.1997

                     88                     89                     90
                      A                      A                      A
 Frequencies --   1397.8138              1406.2831              1426.3134
 Red. masses --      1.6208                 1.6889                 1.3165
 Frc consts  --      1.8659                 1.9679                 1.5780
 IR Inten    --      4.4024                10.6975                32.0624

                     91                     92                     93
                      A                      A                      A
 Frequencies --   1429.4099              1439.7722              1441.3336
 Red. masses --      1.2806                 1.3513                 1.3581
 Frc consts  --      1.5417                 1.6504                 1.6623
 IR Inten    --     30.2538                 6.7177                 7.6460

                     94                     95                     96
                      A                      A                      A
 Frequencies --   1479.1184              1498.4568              1500.8210
 Red. masses --      3.2275                 1.0712                 1.0523
 Frc consts  --      4.1603                 1.4171                 1.3965
 IR Inten    --    110.8011                30.5773                12.4579

                     97                     98                     99
                      A                      A                      A
 Frequencies --   1515.4184              1515.9658              1516.4957
 Red. masses --      1.0591                 1.0563                 1.0488
 Frc consts  --      1.4330                 1.4302                 1.4211
 IR Inten    --     10.1854                 8.5487                 5.4778

                    100                    101                    102
                      A                      A                      A
 Frequencies --   1516.6663              1522.3781              1524.0290
 Red. masses --      1.0678                 1.0937                 1.0692
 Frc consts  --      1.4472                 1.4934                 1.4632
 IR Inten    --     18.0340                35.8848                17.7613

                    103                    104                    105
                      A                      A                      A
 Frequencies --   1527.8781              1571.2614              1573.6130
 Red. masses --      2.5519                 2.2223                 2.3263
 Frc consts  --      3.5099                 3.2326                 3.3940
 IR Inten    --    102.9132               236.1818               181.1233

                    106                    107                    108
                      A                      A                      A
 Frequencies --   1591.7444              1614.7161              1674.7394
 Red. masses --      2.2865                 2.1863                 5.8680
 Frc consts  --      3.4133                 3.3586                 9.6970
 IR Inten    --    477.5420               516.7375               114.6342

                    109                    110                    111
                      A                      A                      A
 Frequencies --   1678.5506              1807.7276              1811.8449
 Red. masses --      4.8762                 9.4528                 9.7175
 Frc consts  --      8.0947                18.2002                18.7951
 IR Inten    --    118.2891               152.9551               184.0961

                    112                    113                    114
                      A                      A                      A
 Frequencies --   1834.5356              1844.0055              2702.6391
 Red. masses --      9.7771                 9.1230                 1.0379
 Frc consts  --     19.3870                18.2774                 4.4668
 IR Inten    --    246.3452               308.0757                12.8788

                    115                    116                    117
                      A                      A                      A
 Frequencies --   3099.3856              3102.1328              3102.1778
 Red. masses --      1.0374                 1.0361                 1.0360
 Frc consts  --      5.8713                 5.8747                 5.8741
 IR Inten    --      1.8212                15.9800                 9.5588

                    118                    119                    120
                      A                      A                      A
 Frequencies --   3104.3509              3122.3664              3125.7343
 Red. masses --      1.0357                 1.0848                 1.0846
 Frc consts  --      5.8808                 6.2314                 6.2434
 IR Inten    --      3.8171                 2.3727                 1.5517

                    121                    122                    123
                      A                      A                      A
 Frequencies --   3174.5749              3181.2066              3182.0112
 Red. masses --      1.1014                 1.1029                 1.1034
 Frc consts  --      6.5399                 6.5764                 6.5823
 IR Inten    --      8.0578                13.6135                11.4884

                    124                    125                    126
                      A                      A                      A
 Frequencies --   3184.6810              3191.9869              3193.2376
 Red. masses --      1.1027                 1.1033                 1.1036
 Frc consts  --      6.5892                 6.6231                 6.6299
 IR Inten    --      6.8771                10.9840                10.5933

                    127                    128                    129
                      A                      A                      A
 Frequencies --   3197.0254              3210.5321              3231.8381
 Red. masses --      1.1037                 1.1030                 1.0882
 Frc consts  --      6.6466                 6.6984                 6.6969
 IR Inten    --      6.3937                 3.3112                 6.6041

                    130                    131                    132
                      A                      A                      A
 Frequencies --   3247.9578              3310.9000              3482.1214
 Red. masses --      1.0961                 1.0924                 1.0796
 Frc consts  --      6.8130                 7.0553                 7.7125
 IR Inten    --      8.8331                 9.2254               138.5915

                    133                    134                    135
                      A                      A                      A
 Frequencies --   3526.2412              3645.2525              3659.2969
 Red. masses --      1.0798                 1.0782                 1.0786
 Frc consts  --      7.9109                 8.4414                 8.5097
 IR Inten    --    234.4441                32.0205                39.2961

 - Thermochemistry -
 -------------------
 Temperature   298.150 Kelvin.  Pressure   1.00000 Atm.
 Atom     1 has atomic number  6 and mass  12.00000

 Molecular mass:   366.13618 amu.
 Principal axes and moments of inertia in atomic units:
                           1         2         3
     Eigenvalues --  5147.65019********************
           X            1.00000  -0.00205   0.00113
           Y            0.00203   0.99985   0.01699
           Z           -0.00116  -0.01698   0.99986
 This molecule is an asymmetric top.
 Rotational symmetry number  1.
 Warning -- assumption of classical behavior for rotation
           may cause significant error
 Rotational temperatures (Kelvin)      0.01683     0.00509     0.00463
 Rotational constants (GHZ):           0.35060     0.10600     0.09657
 Zero-point vibrational energy    1006362.0 (Joules/Mol)
                                  240.52629 (Kcal/Mol)
 Warning -- explicit consideration of  42 degrees of freedom as
           vibrations may cause significant error
 Vibrational temperatures:     20.27    25.48    40.61    56.71    68.89
          (Kelvin)             87.76   100.84   114.21   128.67   135.97
                              145.27   156.87   187.76   211.27   238.27
                              270.48   283.31   307.59   326.64   333.56
                              334.84   360.31   373.88   406.68   423.33
                              449.49   459.05   472.94   501.15   513.86
                              577.57   607.26   627.56   629.93   653.71
                              677.79   706.99   721.85   754.91   850.80
                              861.01   862.82   894.38   919.59   921.62
                              931.93   960.41  1014.65  1028.60  1063.02
                             1120.67  1141.63  1158.87  1176.59  1202.18
                             1321.32  1325.71  1339.51  1354.06  1362.46
                             1381.94  1435.89  1440.76  1457.76  1478.73
                             1488.42  1507.53  1543.05  1543.17  1553.50
                             1558.05  1561.34  1656.70  1672.32  1679.36
                             1727.86  1728.26  1743.76  1801.76  1810.12
                             1858.56  1863.22  1872.11  1888.76  1957.99
                             1967.50  1968.35  2011.14  2023.33  2052.15
                             2056.60  2071.51  2073.76  2128.12  2155.95
                             2159.35  2180.35  2181.14  2181.90  2182.14
                             2190.36  2192.74  2198.28  2260.69  2264.08
                             2290.17  2323.22  2409.58  2415.06  2600.92
                             2606.84  2639.49  2653.11  3888.49  4459.32
                             4463.28  4463.34  4466.47  4492.39  4497.23
                             4567.51  4577.05  4578.20  4582.05  4592.56
                             4594.36  4599.81  4619.24  4649.89  4673.09
                             4763.65  5010.00  5073.47  5244.71  5264.91

 Zero-point correction=                           0.383303 (Hartree/Particle)
 Thermal correction to Energy=                    0.409891
 Thermal correction to Enthalpy=                  0.410835
 Thermal correction to Gibbs Free Energy=         0.323715
 Sum of electronic and zero-point Energies=          -1540.219782
 Sum of electronic and thermal Energies=             -1540.193193
 Sum of electronic and thermal Enthalpies=           -1540.192249
 Sum of electronic and thermal Free Energies=        -1540.279370

                     E (Thermal)             CV                S
                      KCal/Mol        Cal/Mol-Kelvin    Cal/Mol-Kelvin
 Total                  257.211             97.234            183.361
 Electronic               0.000              0.000              0.000
 Translational            0.889              2.981             43.587
 Rotational               0.889              2.981             35.747
 Vibrational            255.433             91.272            104.027
 Vibration     1          0.593              1.986              7.331
 Vibration     2          0.593              1.986              6.876
 Vibration     3          0.593              1.984              5.950
 Vibration     4          0.594              1.981              5.288
 Vibration     5          0.595              1.978              4.903
 Vibration     6          0.597              1.973              4.425
 Vibration     7          0.598              1.968              4.151
 Vibration     8          0.600              1.963              3.906
 Vibration     9          0.602              1.957              3.672
 Vibration    10          0.603              1.953              3.565
 Vibration    11          0.604              1.948              3.436
 Vibration    12          0.606              1.942              3.286
 Vibration    13          0.612              1.923              2.939
 Vibration    14          0.617              1.906              2.713
 Vibration    15          0.624              1.885              2.485
 Vibration    16          0.633              1.856              2.248
 Vibration    17          0.636              1.844              2.162
 Vibration    18          0.644              1.820              2.011
 Vibration    19          0.651              1.800              1.902
 Vibration    20          0.653              1.792              1.865
 Vibration    21          0.653              1.791              1.858
 Vibration    22          0.663              1.762              1.728
 Vibration    23          0.668              1.746              1.663
 Vibration    24          0.682              1.706              1.518
 Vibration    25          0.689              1.684              1.450
 Vibration    26          0.701              1.650              1.350
 Vibration    27          0.705              1.637              1.315
 Vibration    28          0.712              1.618              1.266
 Vibration    29          0.726              1.579              1.174
 Vibration    30          0.732              1.561              1.134
 Vibration    31          0.767              1.467              0.957
 Vibration    32          0.784              1.422              0.885
 Vibration    33          0.797              1.391              0.839
 Vibration    34          0.798              1.388              0.833
 Vibration    35          0.813              1.351              0.783
 Vibration    36          0.828              1.314              0.735
 Vibration    37          0.847              1.269              0.680
 Vibration    38          0.857              1.246              0.654
 Vibration    39          0.880              1.195              0.599
 Vibration    40          0.949              1.050              0.465
 Vibration    41          0.956              1.035              0.452
 Vibration    42          0.958              1.032              0.450

 Optimization completed.
    -- Stationary point found.
 Normal termination of Gaussian 16 at Mon Jun 24 11:59:43 2024.
