                         Program Version 5.0.4 -  RELEASE  -
|  1> ! m062x RIJCOSX def2-TZVPP autoaux verytightSCF noautostart miniprint nopop
|  2> %maxcore  3500
|  3> %pal nprocs  32 end
|  4> %cpcm
|  5> smd true
|  6> SMDsolvent "MeCN"
|  7> end
|  8> * xyz 0 2
|  9>  C                 -0.02659900   -0.71040600   -0.90672100
| 10>  C                 -0.09819300   -1.14672900   -2.38809900
| 11>  C                 -1.56281900   -1.63812100   -2.61702100
| 12>  C                 -2.63801800   -0.63422500   -2.20277700
| 13>  C                 -1.09381700    0.30756300   -0.56435100
| 14>  H                 -1.68916900   -1.88088100   -3.67976600
| 15>  H                 -2.61012700    0.27337000   -2.81982200
| 16>  H                 -3.62806200   -1.08699700   -2.31209900
| 17>  H                 -0.99648100    1.20449000   -1.18008000
| 18>  H                 -1.02641600    0.60296300    0.47704800
| 19>  H                 -1.71316700   -2.56112100   -2.04400800
| 20>  C                  0.21425600    0.03278200   -3.33867600
| 21>  H                  1.27389200    0.30333000   -3.26924000
| 22>  H                  0.02057300   -0.27211200   -4.37388200
| 23>  H                 -0.37050200    0.93268700   -3.13923600
| 24>  C                  0.83190300   -2.30490500   -2.77789600
| 25>  H                  0.62936200   -2.59194900   -3.81626900
| 26>  H                  1.88443400   -2.00920000   -2.72121600
| 27>  H                  0.68391100   -3.18590100   -2.14748500
| 28>  C                  0.36715500   -1.61479500    0.18662700
| 29>  C                 -0.42574700   -1.72887900    1.35383500
| 30>  C                  1.58827600   -2.32577600    0.17037500
| 31>  C                 -0.03834700   -2.54390800    2.41203500
| 32>  H                 -1.35532400   -1.17934400    1.43259300
| 33>  C                  1.97462900   -3.14262300    1.22742800
| 34>  H                  2.27074200   -2.18136800   -0.65523800
| 35>  C                  1.15730900   -3.26287000    2.35362700
| 36>  H                 -0.67323500   -2.60954900    3.29119000
| 37>  H                  2.93192800   -3.65166100    1.17726300
| 38>  H                  1.46002800   -3.89350500    3.18468200
| 39>  S                 -3.69418800    0.51336800   -0.03072700
| 40>  O                 -4.28258200    1.55970600   -0.88122000
| 41>  O                 -3.19193000    0.87190900    1.30307600
| 42>  C                 -4.88111500   -0.81521900    0.10017500
| 43>  C                 -4.50285800   -2.02662600    0.68569900
| 44>  C                 -6.18216500   -0.60556800   -0.34887400
| 45>  C                 -5.45016200   -3.03539800    0.81598200
| 46>  H                 -3.47945500   -2.17756400    1.01062000
| 47>  C                 -7.12001800   -1.62840000   -0.20579100
| 48>  H                 -6.44223600    0.34169900   -0.80794300
| 49>  C                 -6.77191700   -2.85140600    0.37819800
| 50>  H                 -5.16294800   -3.98384700    1.26267300
| 51>  H                 -8.13668300   -1.47395100   -0.55703000
| 52>  C                 -7.79269800   -3.94842900    0.55145700
| 53>  H                 -8.11804800   -4.01852100    1.59733400
| 54>  H                 -8.68185400   -3.76857000   -0.06014000
| 55>  H                 -7.37983000   -4.92505900    0.27560200
| 56>  N                 -2.42555900   -0.30419000   -0.78655700
| 57>  C                  1.23249400    1.68256700    1.83593200
| 58>  C                  1.04909200    1.40092500    3.19629600
| 59>  C                  1.90156600    0.50232600    3.82971700
| 60>  C                  2.96325900   -0.08410400    3.14594200
| 61>  C                  3.15285400    0.18904600    1.79123000
| 62>  C                  2.26114100    1.03295300    1.10344700
| 63>  S                  2.35023900    1.20609000   -0.66764700
| 64>  N                  4.23702900   -0.42722500    1.12163900
| 65>  C                  5.19909500    0.26159700    0.43347300
| 66>  C                  6.24670900   -0.65912600   -0.23516800
| 67>  O                  5.25011500    1.47797600    0.33487300
| 68>  N                  5.61495200   -1.55588200   -1.20528900
| 69>  C                  7.34237900    0.15771300   -0.90683900
| 70>  C                  5.07595100   -2.75019800   -0.85647600
| 71>  C                  4.52467700   -3.59781700   -1.98602500
| 72>  O                  5.05084900   -3.13770400    0.31713000
| 73>  N                  0.40623200    2.57067800    1.13833200
| 74>  C                 -0.73972700    3.20650300    1.54703300
| 75>  C                 -1.47196100    3.94191900    0.40005500
| 76>  O                 -1.18713700    3.18919000    2.68334500
| 77>  N                 -0.54274400    4.41904200   -0.61975800
| 78>  C                 -2.34924000    5.06531300    0.94592100
| 79>  C                 -0.48039900    3.92771200   -1.89351100
| 80>  C                  0.60419100    4.52947000   -2.76659500
| 81>  O                 -1.20731600    3.01991400   -2.29216200
| 82>  H                  0.23760000    1.88224300    3.72271300
| 83>  H                  1.74790100    0.27618300    4.88069100
| 84>  H                  3.65626300   -0.74910400    3.65136100
| 85>  H                  1.20924000    0.28217700   -0.89441800
| 86>  H                  4.36094800   -1.43333200    1.21581900
| 87>  H                  6.66956500   -1.31063000    0.53704400
| 88>  H                  5.51263700   -1.22104300   -2.15305700
| 89>  H                  6.92158400    0.80754400   -1.68083800
| 90>  H                  8.09139500   -0.50426500   -1.35213000
| 91>  H                  7.82663800    0.80712700   -0.17451400
| 92>  H                  4.53207500   -3.09169500   -2.95585700
| 93>  H                  5.12149700   -4.51259700   -2.06014800
| 94>  H                  3.50055900   -3.89327900   -1.74328100
| 95>  H                  0.67424800    2.70104900    0.16880600
| 96>  H                 -2.10708800    3.20316800   -0.09960500
| 97>  H                  0.06475400    5.18873100   -0.37255500
| 98>  H                 -2.95014600    5.49368000    0.13910100
| 99>  H                 -3.00815400    4.66646200    1.71882600
|100>  H                 -1.74194300    5.85861400    1.39818500
|101>  H                  0.90349000    5.53492700   -2.45429800
|102>  H                  1.48414700    3.87698800   -2.72045200
|103>  H                  0.25246800    4.55624400   -3.79983000
|104> *
|105>
|106>                          ****END OF INPUT****

CARTESIAN COORDINATES (ANGSTROEM)
---------------------------------
  C     -0.026599   -0.710406   -0.906721
  C     -0.098193   -1.146729   -2.388099
  C     -1.562819   -1.638121   -2.617021
  C     -2.638018   -0.634225   -2.202777
  C     -1.093817    0.307563   -0.564351
  H     -1.689169   -1.880881   -3.679766
  H     -2.610127    0.273370   -2.819822
  H     -3.628062   -1.086997   -2.312099
  H     -0.996481    1.204490   -1.180080
  H     -1.026416    0.602963    0.477048
  H     -1.713167   -2.561121   -2.044008
  C      0.214256    0.032782   -3.338676
  H      1.273892    0.303330   -3.269240
  H      0.020573   -0.272112   -4.373882
  H     -0.370502    0.932687   -3.139236
  C      0.831903   -2.304905   -2.777896
  H      0.629362   -2.591949   -3.816269
  H      1.884434   -2.009200   -2.721216
  H      0.683911   -3.185901   -2.147485
  C      0.367155   -1.614795    0.186627
  C     -0.425747   -1.728879    1.353835
  C      1.588276   -2.325776    0.170375
  C     -0.038347   -2.543908    2.412035
  H     -1.355324   -1.179344    1.432593
  C      1.974629   -3.142623    1.227428
  H      2.270742   -2.181368   -0.655238
  C      1.157309   -3.262870    2.353627
  H     -0.673235   -2.609549    3.291190
  H      2.931928   -3.651661    1.177263
  H      1.460028   -3.893505    3.184682
  S     -3.694188    0.513368   -0.030727
  O     -4.282582    1.559706   -0.881220
  O     -3.191930    0.871909    1.303076
  C     -4.881115   -0.815219    0.100175
  C     -4.502858   -2.026626    0.685699
  C     -6.182165   -0.605568   -0.348874
  C     -5.450162   -3.035398    0.815982
  H     -3.479455   -2.177564    1.010620
  C     -7.120018   -1.628400   -0.205791
  H     -6.442236    0.341699   -0.807943
  C     -6.771917   -2.851406    0.378198
  H     -5.162948   -3.983847    1.262673
  H     -8.136683   -1.473951   -0.557030
  C     -7.792698   -3.948429    0.551457
  H     -8.118048   -4.018521    1.597334
  H     -8.681854   -3.768570   -0.060140
  H     -7.379830   -4.925059    0.275602
  N     -2.425559   -0.304190   -0.786557
  C      1.232494    1.682567    1.835932
  C      1.049092    1.400925    3.196296
  C      1.901566    0.502326    3.829717
  C      2.963259   -0.084104    3.145942
  C      3.152854    0.189046    1.791230
  C      2.261141    1.032953    1.103447
  S      2.350239    1.206090   -0.667647
  N      4.237029   -0.427225    1.121639
  C      5.199095    0.261597    0.433473
  C      6.246709   -0.659126   -0.235168
  O      5.250115    1.477976    0.334873
  N      5.614952   -1.555882   -1.205289
  C      7.342379    0.157713   -0.906839
  C      5.075951   -2.750198   -0.856476
  C      4.524677   -3.597817   -1.986025
  O      5.050849   -3.137704    0.317130
  N      0.406232    2.570678    1.138332
  C     -0.739727    3.206503    1.547033
  C     -1.471961    3.941919    0.400055
  O     -1.187137    3.189190    2.683345
  N     -0.542744    4.419042   -0.619758
  C     -2.349240    5.065313    0.945921
  C     -0.480399    3.927712   -1.893511
  C      0.604191    4.529470   -2.766595
  O     -1.207316    3.019914   -2.292162
  H      0.237600    1.882243    3.722713
  H      1.747901    0.276183    4.880691
  H      3.656263   -0.749104    3.651361
  H      1.209240    0.282177   -0.894418
  H      4.360948   -1.433332    1.215819
  H      6.669565   -1.310630    0.537044
  H      5.512637   -1.221043   -2.153057
  H      6.921584    0.807544   -1.680838
  H      8.091395   -0.504265   -1.352130
  H      7.826638    0.807127   -0.174514
  H      4.532075   -3.091695   -2.955857
  H      5.121497   -4.512597   -2.060148
  H      3.500559   -3.893279   -1.743281
  H      0.674248    2.701049    0.168806
  H     -2.107088    3.203168   -0.099605
  H      0.064754    5.188731   -0.372555
  H     -2.950146    5.493680    0.139101
  H     -3.008154    4.666462    1.718826
  H     -1.741943    5.858614    1.398185
  H      0.903490    5.534927   -2.454298
  H      1.484147    3.876988   -2.720452
  H      0.252468    4.556244   -3.799830

ORBITAL ENERGIES
----------------
                 SPIN UP ORBITALS
  NO   OCC          E(Eh)            E(eV)
   0   1.0000     -90.108241     -2451.9699
   1   1.0000     -89.900803     -2446.3252
   2   1.0000     -19.627473      -534.0907
   3   1.0000     -19.627196      -534.0832
   4   1.0000     -19.608205      -533.5664
   5   1.0000     -19.604609      -533.4685
   6   1.0000     -19.600892      -533.3674
   7   1.0000     -19.598536      -533.3033
   8   1.0000     -14.785872      -402.3440
   9   1.0000     -14.780437      -402.1961
  10   1.0000     -14.778123      -402.1332
  11   1.0000     -14.775562      -402.0635
  12   1.0000     -14.775310      -402.0566
  13   1.0000     -10.655910      -289.9621
  14   1.0000     -10.651861      -289.8519
  15   1.0000     -10.650471      -289.8140
  16   1.0000     -10.649520      -289.7882
  17   1.0000     -10.603380      -288.5326
  18   1.0000     -10.596423      -288.3433
  19   1.0000     -10.588008      -288.1143
  20   1.0000     -10.587531      -288.1014
  21   1.0000     -10.581790      -287.9451
  22   1.0000     -10.577745      -287.8351
  23   1.0000     -10.572533      -287.6933
  24   1.0000     -10.569810      -287.6192
  25   1.0000     -10.565954      -287.5142
  26   1.0000     -10.564470      -287.4738
  27   1.0000     -10.560804      -287.3741
  28   1.0000     -10.560325      -287.3611
  29   1.0000     -10.560252      -287.3591
  30   1.0000     -10.558416      -287.3091
  31   1.0000     -10.550026      -287.0808
  32   1.0000     -10.549711      -287.0722
  33   1.0000     -10.549070      -287.0548
  34   1.0000     -10.544995      -286.9439
  35   1.0000     -10.543921      -286.9147
  36   1.0000     -10.543536      -286.9042
  37   1.0000     -10.543427      -286.9012
  38   1.0000     -10.542168      -286.8670
  39   1.0000     -10.541985      -286.8620
  40   1.0000     -10.538683      -286.7722
  41   1.0000     -10.536512      -286.7131
  42   1.0000     -10.534598      -286.6610
  43   1.0000     -10.533172      -286.6222
  44   1.0000     -10.529470      -286.5214
  45   1.0000     -10.526653      -286.4448
  46   1.0000     -10.525765      -286.4206
  47   1.0000     -10.518912      -286.2341
  48   1.0000     -10.518169      -286.2139
  49   1.0000      -8.435641      -229.5455
  50   1.0000      -8.258364      -224.7215
  51   1.0000      -6.357568      -172.9982
  52   1.0000      -6.356592      -172.9717
  53   1.0000      -6.356410      -172.9667
  54   1.0000      -6.180215      -168.1722
  55   1.0000      -6.177080      -168.0869
  56   1.0000      -6.173291      -167.9838
  57   1.0000      -1.229717       -33.4623
  58   1.0000      -1.173702       -31.9381
  59   1.0000      -1.171162       -31.8689
  60   1.0000      -1.163034       -31.6478
  61   1.0000      -1.162507       -31.6334
  62   1.0000      -1.120966       -30.5030
  63   1.0000      -1.063783       -28.9470
  64   1.0000      -1.052159       -28.6307
  65   1.0000      -1.048770       -28.5385
  66   1.0000      -1.036002       -28.1910
  67   1.0000      -1.032589       -28.0982
  68   1.0000      -0.978861       -26.6362
  69   1.0000      -0.968369       -26.3507
  70   1.0000      -0.953764       -25.9533
  71   1.0000      -0.931558       -25.3490
  72   1.0000      -0.890637       -24.2355
  73   1.0000      -0.885967       -24.1084
  74   1.0000      -0.880691       -23.9648
  75   1.0000      -0.879211       -23.9246
  76   1.0000      -0.870683       -23.6925
  77   1.0000      -0.854845       -23.2615
  78   1.0000      -0.844162       -22.9708
  79   1.0000      -0.843196       -22.9445
  80   1.0000      -0.834583       -22.7102
  81   1.0000      -0.823571       -22.4105
  82   1.0000      -0.816482       -22.2176
  83   1.0000      -0.814940       -22.1756
  84   1.0000      -0.795266       -21.6403
  85   1.0000      -0.788546       -21.4574
  86   1.0000      -0.770444       -20.9649
  87   1.0000      -0.753934       -20.5156
  88   1.0000      -0.744860       -20.2687
  89   1.0000      -0.740787       -20.1578
  90   1.0000      -0.725633       -19.7455
  91   1.0000      -0.704989       -19.1837
  92   1.0000      -0.703959       -19.1557
  93   1.0000      -0.692781       -18.8515
  94   1.0000      -0.689792       -18.7702
  95   1.0000      -0.685361       -18.6496
  96   1.0000      -0.675999       -18.3949
  97   1.0000      -0.671598       -18.2751
  98   1.0000      -0.670474       -18.2445
  99   1.0000      -0.663410       -18.0523
 100   1.0000      -0.656140       -17.8545
 101   1.0000      -0.648003       -17.6331
 102   1.0000      -0.625171       -17.0118
 103   1.0000      -0.620162       -16.8755
 104   1.0000      -0.615988       -16.7619
 105   1.0000      -0.610490       -16.6123
 106   1.0000      -0.595852       -16.2140
 107   1.0000      -0.592255       -16.1161
 108   1.0000      -0.575908       -15.6712
 109   1.0000      -0.565775       -15.3955
 110   1.0000      -0.564745       -15.3675
 111   1.0000      -0.563988       -15.3469
 112   1.0000      -0.556127       -15.1330
 113   1.0000      -0.555877       -15.1262
 114   1.0000      -0.548929       -14.9371
 115   1.0000      -0.544747       -14.8233
 116   1.0000      -0.542550       -14.7635
 117   1.0000      -0.541712       -14.7407
 118   1.0000      -0.537693       -14.6314
 119   1.0000      -0.537413       -14.6237
 120   1.0000      -0.533372       -14.5138
 121   1.0000      -0.527934       -14.3658
 122   1.0000      -0.522483       -14.2175
 123   1.0000      -0.520619       -14.1668
 124   1.0000      -0.519435       -14.1345
 125   1.0000      -0.515369       -14.0239
 126   1.0000      -0.511954       -13.9310
 127   1.0000      -0.509747       -13.8709
 128   1.0000      -0.507373       -13.8063
 129   1.0000      -0.502976       -13.6867
 130   1.0000      -0.499756       -13.5991
 131   1.0000      -0.496805       -13.5188
 132   1.0000      -0.492293       -13.3960
 133   1.0000      -0.491093       -13.3633
 134   1.0000      -0.487374       -13.2621
 135   1.0000      -0.484492       -13.1837
 136   1.0000      -0.479554       -13.0493
 137   1.0000      -0.476846       -12.9756
 138   1.0000      -0.473198       -12.8764
 139   1.0000      -0.468356       -12.7446
 140   1.0000      -0.467964       -12.7340
 141   1.0000      -0.466392       -12.6912
 142   1.0000      -0.463287       -12.6067
 143   1.0000      -0.457453       -12.4479
 144   1.0000      -0.451207       -12.2780
 145   1.0000      -0.448104       -12.1935
 146   1.0000      -0.447569       -12.1790
 147   1.0000      -0.446130       -12.1398
 148   1.0000      -0.442251       -12.0343
 149   1.0000      -0.441360       -12.0100
 150   1.0000      -0.439670       -11.9640
 151   1.0000      -0.438067       -11.9204
 152   1.0000      -0.435844       -11.8599
 153   1.0000      -0.434692       -11.8286
 154   1.0000      -0.432475       -11.7683
 155   1.0000      -0.431799       -11.7498
 156   1.0000      -0.429516       -11.6877
 157   1.0000      -0.426734       -11.6120
 158   1.0000      -0.421777       -11.4771
 159   1.0000      -0.420877       -11.4526
 160   1.0000      -0.419286       -11.4093
 161   1.0000      -0.418023       -11.3750
 162   1.0000      -0.411362       -11.1937
 163   1.0000      -0.406326       -11.0567
 164   1.0000      -0.404656       -11.0113
 165   1.0000      -0.402438       -10.9509
 166   1.0000      -0.399303       -10.8656
 167   1.0000      -0.392100       -10.6696
 168   1.0000      -0.387273       -10.5382
 169   1.0000      -0.384024       -10.4498
 170   1.0000      -0.381182       -10.3725
 171   1.0000      -0.372773       -10.1437
 172   1.0000      -0.369518       -10.0551
 173   1.0000      -0.363578        -9.8935
 174   1.0000      -0.359123        -9.7722
 175   1.0000      -0.352855        -9.6017
 176   1.0000      -0.342752        -9.3268
 177   1.0000      -0.341142        -9.2829
 178   1.0000      -0.330810        -9.0018
 179   1.0000      -0.321440        -8.7468
 180   1.0000      -0.319284        -8.6882
 181   1.0000      -0.316494        -8.6122
 182   1.0000      -0.315965        -8.5978
 183   1.0000      -0.313500        -8.5308
 184   1.0000      -0.309712        -8.4277
 185   1.0000      -0.304757        -8.2929
 186   1.0000      -0.295794        -8.0490
 187   1.0000      -0.278994        -7.5918
 188   1.0000      -0.232728        -6.3329
 189   0.0000      -0.009397        -0.2557
 190   0.0000      -0.004828        -0.1314
 191   0.0000      -0.001351        -0.0368
 192   0.0000       0.007957         0.2165
 193   0.0000       0.018160         0.4942

                 SPIN DOWN ORBITALS
  NO   OCC          E(Eh)            E(eV)
   0   1.0000     -90.108196     -2451.9687
   1   1.0000     -89.898024     -2446.2496
   2   1.0000     -19.627420      -534.0892
   3   1.0000     -19.627196      -534.0832
   4   1.0000     -19.608158      -533.5651
   5   1.0000     -19.604518      -533.4660
   6   1.0000     -19.600893      -533.3674
   7   1.0000     -19.598515      -533.3027
   8   1.0000     -14.785873      -402.3441
   9   1.0000     -14.779884      -402.1811
  10   1.0000     -14.778119      -402.1331
  11   1.0000     -14.775585      -402.0641
  12   1.0000     -14.775309      -402.0566
  13   1.0000     -10.655909      -289.9620
  14   1.0000     -10.651861      -289.8519
  15   1.0000     -10.650472      -289.8141
  16   1.0000     -10.649503      -289.7877
  17   1.0000     -10.603167      -288.5268
  18   1.0000     -10.596253      -288.3387
  19   1.0000     -10.588010      -288.1144
  20   1.0000     -10.587528      -288.1013
  21   1.0000     -10.582023      -287.9515
  22   1.0000     -10.577719      -287.8344
  23   1.0000     -10.569843      -287.6200
  24   1.0000     -10.567659      -287.5606
  25   1.0000     -10.566266      -287.5227
  26   1.0000     -10.564468      -287.4738
  27   1.0000     -10.560800      -287.3740
  28   1.0000     -10.560563      -287.3675
  29   1.0000     -10.560321      -287.3609
  30   1.0000     -10.559157      -287.3293
  31   1.0000     -10.549866      -287.0764
  32   1.0000     -10.549710      -287.0722
  33   1.0000     -10.549069      -287.0548
  34   1.0000     -10.544318      -286.9255
  35   1.0000     -10.544013      -286.9172
  36   1.0000     -10.543026      -286.8903
  37   1.0000     -10.542762      -286.8831
  38   1.0000     -10.542258      -286.8694
  39   1.0000     -10.542142      -286.8663
  40   1.0000     -10.538991      -286.7805
  41   1.0000     -10.536000      -286.6991
  42   1.0000     -10.534597      -286.6610
  43   1.0000     -10.533173      -286.6222
  44   1.0000     -10.529470      -286.5214
  45   1.0000     -10.526653      -286.4448
  46   1.0000     -10.525764      -286.4206
  47   1.0000     -10.518892      -286.2336
  48   1.0000     -10.517976      -286.2087
  49   1.0000      -8.435619      -229.5449
  50   1.0000      -8.257444      -224.6965
  51   1.0000      -6.357459      -172.9952
  52   1.0000      -6.356582      -172.9714
  53   1.0000      -6.356398      -172.9664
  54   1.0000      -6.176489      -168.0708
  55   1.0000      -6.172558      -167.9639
  56   1.0000      -6.172255      -167.9556
  57   1.0000      -1.229545       -33.4576
  58   1.0000      -1.173582       -31.9348
  59   1.0000      -1.171037       -31.8655
  60   1.0000      -1.162982       -31.6464
  61   1.0000      -1.162461       -31.6322
  62   1.0000      -1.120863       -30.5002
  63   1.0000      -1.063517       -28.9398
  64   1.0000      -1.050148       -28.5760
  65   1.0000      -1.048658       -28.5354
  66   1.0000      -1.035957       -28.1898
  67   1.0000      -1.032535       -28.0967
  68   1.0000      -0.978683       -26.6313
  69   1.0000      -0.965306       -26.2673
  70   1.0000      -0.953351       -25.9420
  71   1.0000      -0.927152       -25.2291
  72   1.0000      -0.890396       -24.2289
  73   1.0000      -0.883146       -24.0316
  74   1.0000      -0.880594       -23.9622
  75   1.0000      -0.876379       -23.8475
  76   1.0000      -0.868827       -23.6420
  77   1.0000      -0.854823       -23.2609
  78   1.0000      -0.843388       -22.9498
  79   1.0000      -0.842421       -22.9235
  80   1.0000      -0.833274       -22.6745
  81   1.0000      -0.822222       -22.3738
  82   1.0000      -0.816461       -22.2170
  83   1.0000      -0.814918       -22.1751
  84   1.0000      -0.791256       -21.5312
  85   1.0000      -0.785660       -21.3789
  86   1.0000      -0.769621       -20.9425
  87   1.0000      -0.753853       -20.5134
  88   1.0000      -0.743597       -20.2343
  89   1.0000      -0.737745       -20.0751
  90   1.0000      -0.721114       -19.6225
  91   1.0000      -0.704809       -19.1788
  92   1.0000      -0.703898       -19.1540
  93   1.0000      -0.691628       -18.8201
  94   1.0000      -0.688431       -18.7332
  95   1.0000      -0.683852       -18.6086
  96   1.0000      -0.675585       -18.3836
  97   1.0000      -0.671561       -18.2741
  98   1.0000      -0.668045       -18.1784
  99   1.0000      -0.663059       -18.0428
 100   1.0000      -0.654518       -17.8103
 101   1.0000      -0.647797       -17.6275
 102   1.0000      -0.624612       -16.9966
 103   1.0000      -0.617617       -16.8062
 104   1.0000      -0.614563       -16.7231
 105   1.0000      -0.610313       -16.6075
 106   1.0000      -0.595625       -16.2078
 107   1.0000      -0.591396       -16.0927
 108   1.0000      -0.572582       -15.5807
 109   1.0000      -0.565496       -15.3879
 110   1.0000      -0.564688       -15.3660
 111   1.0000      -0.563832       -15.3426
 112   1.0000      -0.555669       -15.1205
 113   1.0000      -0.554802       -15.0969
 114   1.0000      -0.548507       -14.9256
 115   1.0000      -0.542842       -14.7715
 116   1.0000      -0.541621       -14.7383
 117   1.0000      -0.540883       -14.7182
 118   1.0000      -0.537152       -14.6166
 119   1.0000      -0.536862       -14.6087
 120   1.0000      -0.532609       -14.4930
 121   1.0000      -0.525244       -14.2926
 122   1.0000      -0.520643       -14.1674
 123   1.0000      -0.519177       -14.1275
 124   1.0000      -0.516343       -14.0504
 125   1.0000      -0.513336       -13.9686
 126   1.0000      -0.510602       -13.8942
 127   1.0000      -0.509320       -13.8593
 128   1.0000      -0.506487       -13.7822
 129   1.0000      -0.502022       -13.6607
 130   1.0000      -0.498597       -13.5675
 131   1.0000      -0.496475       -13.5098
 132   1.0000      -0.491044       -13.3620
 133   1.0000      -0.490712       -13.3530
 134   1.0000      -0.486473       -13.2376
 135   1.0000      -0.483978       -13.1697
 136   1.0000      -0.478677       -13.0255
 137   1.0000      -0.475533       -12.9399
 138   1.0000      -0.472785       -12.8651
 139   1.0000      -0.467533       -12.7222
 140   1.0000      -0.467029       -12.7085
 141   1.0000      -0.465227       -12.6595
 142   1.0000      -0.461534       -12.5590
 143   1.0000      -0.455543       -12.3960
 144   1.0000      -0.450808       -12.2671
 145   1.0000      -0.447711       -12.1828
 146   1.0000      -0.447527       -12.1778
 147   1.0000      -0.444421       -12.0933
 148   1.0000      -0.441814       -12.0224
 149   1.0000      -0.440641       -11.9904
 150   1.0000      -0.437924       -11.9165
 151   1.0000      -0.436352       -11.8737
 152   1.0000      -0.435270       -11.8443
 153   1.0000      -0.432945       -11.7810
 154   1.0000      -0.432241       -11.7619
 155   1.0000      -0.431142       -11.7320
 156   1.0000      -0.427861       -11.6427
 157   1.0000      -0.425464       -11.5775
 158   1.0000      -0.421545       -11.4708
 159   1.0000      -0.419528       -11.4159
 160   1.0000      -0.418597       -11.3906
 161   1.0000      -0.416250       -11.3267
 162   1.0000      -0.409304       -11.1377
 163   1.0000      -0.406193       -11.0531
 164   1.0000      -0.403991       -10.9932
 165   1.0000      -0.398712       -10.8495
 166   1.0000      -0.397396       -10.8137
 167   1.0000      -0.391589       -10.6557
 168   1.0000      -0.386422       -10.5151
 169   1.0000      -0.381809       -10.3896
 170   1.0000      -0.378470       -10.2987
 171   1.0000      -0.370441       -10.0802
 172   1.0000      -0.365644        -9.9497
 173   1.0000      -0.363100        -9.8805
 174   1.0000      -0.358909        -9.7664
 175   1.0000      -0.350945        -9.5497
 176   1.0000      -0.342491        -9.3197
 177   1.0000      -0.340710        -9.2712
 178   1.0000      -0.326298        -8.8790
 179   1.0000      -0.320628        -8.7247
 180   1.0000      -0.317521        -8.6402
 181   1.0000      -0.314716        -8.5639
 182   1.0000      -0.311873        -8.4865
 183   1.0000      -0.310347        -8.4450
 184   1.0000      -0.304374        -8.2824
 185   1.0000      -0.301900        -8.2151
 186   1.0000      -0.292620        -7.9626
 187   1.0000      -0.276611        -7.5270
 188   0.0000      -0.085131        -2.3165
 189   0.0000      -0.009109        -0.2479
 190   0.0000      -0.002708        -0.0737
 191   0.0000       0.000066         0.0018
 192   0.0000       0.007975         0.2170

FINAL SINGLE POINT ENERGY     -2921.055689890231

DIPOLE MOMENT
-------------
                                X             Y             Z
Electronic contribution:     -2.02584      12.58722      21.74228
Nuclear contribution   :      2.73868     -15.26981     -24.82946
                        -----------------------------------------
Total Dipole Moment    :      0.71283      -2.68259      -3.08718
                        -----------------------------------------
Magnitude (a.u.)       :      4.15152
Magnitude (Debye)      :     10.55231

Rotational constants in cm-1:     0.002886     0.001475     0.001265
Rotational constants in MHz :    86.519326    44.221651    37.935920

                             ****ORCA TERMINATED NORMALLY****
TOTAL RUN TIME: 0 days 0 hours 22 minutes 11 seconds 802 msec
